#
9 atoms
4 atom types
0.0 16.0531 xlo xhi
0.0 16.0531 ylo yhi
0.0 16.0531 zlo zhi
0.0 0.0  0.0 xy xz yz

Masses

1 1.0 #H 
2 12.0 # C
3 14.0 #N
4 16.0 #O

Atoms

1 2 -1.34116 -0.375754 0.00191881
2 2 0.057506 0.164506 0.00764646
3 3 1.00352 -0.808875 -0.0717859
4 4 0.386279 1.32169 0.0757806
5 1 -1.418 -1.43765 0.860875
6 1 -1.67896 -0.730433 -1.34929
7 1 -2.05716 0.848925 0.374178
8 1 0.736864 -1.79514 -0.111059
9 1 1.97017 -0.508976 -0.0938892
